ITEM: TIMESTEP
0
ITEM: NUMBER OF ATOMS
84
ITEM: BOX BOUNDS
36.8402 64.2116
41.0137 68.3851
29.7681 57.1395
ITEM: ATOMS id type xs ys zs
1 1 0.261578 0.639832 0.256378
2 2 0.301912 0.629172 0.222818
3 3 0.254828 0.677189 0.280288
4 4 0.324315 0.596765 0.232588
5 4 0.324515 0.662111 0.215626
6 4 0.285921 0.624072 0.185862
7 5 0.235346 0.601379 0.261274
8 6 0.191126 0.60067 0.287018
9 1 0.195813 0.605165 0.341727
10 3 0.184361 0.64333 0.363003
11 7 0.161129 0.553109 0.27949
12 8 0.147779 0.545559 0.226752
13 8 0.169625 0.509658 0.195245
14 8 0.105944 0.569802 0.208113
15 8 0.152748 0.502111 0.147583
16 8 0.0884722 0.561837 0.159004
17 8 0.11264 0.527823 0.12799
18 9 0.096504 0.519357 0.0785695
19 10 0.247198 0.570057 0.246949
20 4 0.170105 0.631965 0.275373
21 4 0.184309 0.521752 0.290759
22 4 0.126731 0.554711 0.300978
23 11 0.20003 0.487665 0.207442
24 11 0.088527 0.595457 0.232513
25 11 0.174882 0.478324 0.125197
26 11 0.0577712 0.583408 0.146797
27 10 0.070955 0.542482 0.0720441
28 5 0.217714 0.568112 0.366146
29 7 0.223843 0.575057 0.420624
30 1 0.255376 0.536188 0.444057
31 3 0.297574 0.544998 0.45482
32 10 0.229965 0.538638 0.348597
33 4 0.190225 0.579201 0.440861
34 4 0.244386 0.608283 0.426182
35 5 0.234834 0.490283 0.44946
36 7 0.258808 0.448484 0.470023
37 1 0.243683 0.43875 0.523796
38 3 0.20133 0.440787 0.538518
39 10 0.199055 0.487233 0.443351
40 4 0.297554 0.455258 0.466907
41 4 0.243209 0.421396 0.445944
42 5 0.280551 0.424957 0.552155
43 6 0.278966 0.414186 0.601938
44 1 0.312808 0.450547 0.627634
45 3 0.306708 0.494869 0.626651
46 7 0.290062 0.358572 0.611377
47 8 0.251418 0.322666 0.592328
48 8 0.266991 0.29195 0.555466
49 8 0.204403 0.316127 0.612586
50 8 0.234601 0.2554 0.537043
51 8 0.171973 0.284349 0.59135
52 8 0.187861 0.251861 0.554873
53 10 0.312549 0.419989 0.535477
54 4 0.243792 0.422925 0.617537
55 4 0.294355 0.348154 0.650371
56 4 0.324455 0.346336 0.593629
57 11 0.303074 0.294674 0.539734
58 11 0.191386 0.34103 0.640285
59 11 0.242507 0.229405 0.508431
60 11 0.134668 0.283057 0.604141
61 11 0.164927 0.223561 0.539706
62 5 0.349792 0.432901 0.654509
63 6 0.380367 0.462825 0.684786
64 1 0.420105 0.489098 0.656553
65 3 0.454165 0.469049 0.635606
66 7 0.403454 0.429029 0.724632
67 7 0.437865 0.456584 0.76166
68 12 0.412282 0.511119 0.791422
69 2 0.397044 0.479191 0.850254
70 10 0.3592 0.397758 0.656314
71 4 0.358248 0.49036 0.702377
72 4 0.422829 0.398025 0.707001
73 4 0.37438 0.414238 0.748787
74 4 0.450123 0.431084 0.790764
75 4 0.471181 0.462415 0.73922
76 4 0.377977 0.505216 0.874885
77 4 0.43327 0.471389 0.866818
78 4 0.378399 0.444598 0.840095
79 5 0.420312 0.537206 0.658969
80 2 0.45806 0.566426 0.640334
81 10 0.3901 0.551762 0.673185
82 4 0.495947 0.552281 0.643801
83 4 0.452844 0.602755 0.657669
84 4 0.454706 0.56655 0.599884
ITEM: TIMESTEP
10
ITEM: NUMBER OF ATOMS
84
ITEM: BOX BOUNDS
36.8402 64.2116
41.0137 68.3851
29.7681 57.1395
ITEM: ATOMS id type xs ys zs
1 1 0.26488 0.637743 0.256185
2 2 0.302561 0.632876 0.218391
3 3 0.259789 0.678062 0.275725
4 4 0.328713 0.604179 0.230227
5 4 0.32197 0.668404 0.215467
6 4 0.287428 0.622958 0.182056
7 5 0.233997 0.59832 0.262797
8 6 0.187395 0.598763 0.286729
9 1 0.197253 0.605833 0.341217
10 3 0.18238 0.641626 0.363555
11 7 0.16006 0.549747 0.277202
12 8 0.146039 0.543309 0.225679
13 8 0.170873 0.508924 0.195646
14 8 0.105882 0.56683 0.208001
15 8 0.154489 0.501999 0.148014
16 8 0.0898172 0.559565 0.161548
17 8 0.114049 0.528939 0.130791
18 9 0.0956725 0.518317 0.0836235
19 10 0.239221 0.568824 0.242073
20 4 0.166469 0.629521 0.273579
21 4 0.182959 0.518575 0.28951
22 4 0.125445 0.54839 0.298357
23 11 0.199273 0.48513 0.209218
24 11 0.0865519 0.59152 0.231952
25 11 0.169599 0.472583 0.12649
26 11 0.0558259 0.576802 0.151332
27 10 0.0705872 0.541752 0.0764341
28 5 0.220903 0.571143 0.366061
29 7 0.226156 0.574326 0.416676
30 1 0.257754 0.536504 0.439593
31 3 0.297213 0.544238 0.457053
32 10 0.231911 0.540833 0.349123
33 4 0.190856 0.567716 0.433019
34 4 0.2402 0.609907 0.426349
35 5 0.235425 0.491901 0.447229
36 7 0.258777 0.447643 0.469984
37 1 0.244339 0.435525 0.521039
38 3 0.203074 0.439595 0.538774
39 10 0.200674 0.491686 0.436318
40 4 0.296728 0.458003 0.473033
41 4 0.25058 0.417864 0.445431
42 5 0.283128 0.421681 0.549102
43 6 0.278805 0.413894 0.601316
44 1 0.31312 0.451249 0.628344
45 3 0.308644 0.495392 0.620931
46 7 0.289851 0.358777 0.613353
47 8 0.250621 0.323727 0.593132
48 8 0.265934 0.292672 0.55486
49 8 0.203796 0.317422 0.614298
50 8 0.236281 0.255039 0.535691
51 8 0.17265 0.282212 0.594198
52 8 0.188311 0.252285 0.554017
53 10 0.316119 0.419012 0.533897
54 4 0.242516 0.422383 0.614274
55 4 0.287966 0.351834 0.653301
56 4 0.325303 0.343956 0.600276
57 11 0.302336 0.297265 0.540344
58 11 0.194629 0.336073 0.647838
59 11 0.246452 0.230831 0.506239
60 11 0.137871 0.280465 0.612753
61 11 0.162832 0.226524 0.538393
62 5 0.349928 0.433923 0.657309
63 6 0.381942 0.463431 0.68616
64 1 0.422357 0.489197 0.658335
65 3 0.457094 0.466646 0.639109
66 7 0.404438 0.432894 0.72729
67 7 0.438432 0.459097 0.762927
68 12 0.410916 0.509386 0.791806
69 2 0.398921 0.480237 0.84933
70 10 0.355103 0.398355 0.663215
71 4 0.359189 0.492208 0.700688
72 4 0.428809 0.403621 0.713266
73 4 0.373102 0.416445 0.747166
74 4 0.452029 0.430692 0.788537
75 4 0.469961 0.469875 0.739747
76 4 0.374364 0.506195 0.868582
77 4 0.43345 0.477963 0.870547
78 4 0.381552 0.444644 0.840441
79 5 0.416458 0.538915 0.653044
80 2 0.458871 0.568976 0.642515
81 10 0.384678 0.552765 0.664226
82 4 0.491958 0.546486 0.649371
83 4 0.463245 0.601862 0.665902
84 4 0.466504 0.575831 0.603243
ITEM: TIMESTEP
20
ITEM: NUMBER OF ATOMS
84
ITEM: BOX BOUNDS
36.8402 64.2116
41.0137 68.3851
29.7681 57.1395
ITEM: ATOMS id type xs ys zs
1 1 0.26535 0.638002 0.249744
2 2 0.305452 0.634979 0.214857
3 3 0.262009 0.675323 0.27383
4 4 0.331912 0.607327 0.228375
5 4 0.324746 0.67069 0.214873
6 4 0.291104 0.622275 0.179076
7 5 0.234626 0.598602 0.258158
8 6 0.187661 0.596695 0.287887
9 1 0.195505 0.604522 0.341423
10 3 0.178519 0.64076 0.363017
11 7 0.161409 0.546304 0.280552
12 8 0.145358 0.539977 0.227079
13 8 0.171485 0.507984 0.19582
14 8 0.105678 0.565771 0.209326
15 8 0.156054 0.500532 0.147078
16 8 0.089167 0.559731 0.161073
17 8 0.113418 0.526159 0.133012
18 9 0.0955089 0.516796 0.0868296
19 10 0.245535 0.567824 0.242019
20 4 0.163925 0.626105 0.276548
21 4 0.18351 0.514933 0.293779
22 4 0.127274 0.543582 0.302344
23 11 0.205551 0.492081 0.207799
24 11 0.0850787 0.586763 0.235629
25 11 0.176088 0.478944 0.12082
26 11 0.0601023 0.581224 0.145256
27 10 0.0794377 0.546504 0.077381
28 5 0.223677 0.570941 0.364663
29 7 0.226179 0.573209 0.417456
30 1 0.257397 0.53503 0.443608
31 3 0.299131 0.543581 0.456598
32 10 0.239305 0.543382 0.346691
33 4 0.189641 0.569715 0.431936
34 4 0.243876 0.607034 0.427435
35 5 0.23603 0.490192 0.446831
36 7 0.260505 0.448807 0.467503
37 1 0.247829 0.437667 0.518716
38 3 0.205963 0.440198 0.535106
39 10 0.200352 0.490363 0.439495
40 4 0.299179 0.451826 0.460288
41 4 0.241385 0.419783 0.448824
42 5 0.283848 0.417905 0.548691
43 6 0.279141 0.413101 0.601136
44 1 0.315175 0.449151 0.624826
45 3 0.310887 0.492433 0.615228
46 7 0.287882 0.362233 0.618159
47 8 0.255449 0.323556 0.593682
48 8 0.266794 0.293733 0.554096
49 8 0.206911 0.317858 0.611748
50 8 0.233365 0.26162 0.53617
51 8 0.173905 0.278909 0.595088
52 8 0.187635 0.251717 0.556922
53 10 0.31614 0.409222 0.534248
54 4 0.243144 0.423626 0.613395
55 4 0.28168 0.358976 0.65814
56 4 0.325347 0.351207 0.6071
57 11 0.302859 0.294892 0.538134
58 11 0.194721 0.344723 0.637951
59 11 0.246326 0.240156 0.505704
60 11 0.138155 0.276443 0.611604
61 11 0.161892 0.224355 0.544859
62 5 0.34727 0.432791 0.657657
63 6 0.380545 0.464166 0.687728
64 1 0.421575 0.489429 0.656299
65 3 0.457389 0.466463 0.643214
66 7 0.40544 0.432049 0.728748
67 7 0.442547 0.460322 0.762987
68 12 0.409061 0.510813 0.792117
69 2 0.399596 0.480516 0.851411
70 10 0.348133 0.396705 0.662538
71 4 0.360467 0.493605 0.704671
72 4 0.421964 0.399785 0.710486
73 4 0.374201 0.418394 0.750774
74 4 0.456312 0.432669 0.78932
75 4 0.474039 0.477714 0.744192
76 4 0.373553 0.500858 0.87498
77 4 0.434708 0.477835 0.871597
78 4 0.383572 0.443811 0.844812
79 5 0.421005 0.537445 0.648489
80 2 0.460277 0.569777 0.642816
81 10 0.389446 0.553808 0.656432
82 4 0.497767 0.559269 0.654289
83 4 0.450035 0.600163 0.667702
84 4 0.460788 0.58982 0.607524
ITEM: TIMESTEP
30
ITEM: NUMBER OF ATOMS
84
ITEM: BOX BOUNDS
36.8402 64.2116
41.0137 68.3851
29.7681 57.1395
ITEM: ATOMS id type xs ys zs
1 1 0.264849 0.637735 0.248311
2 2 0.306248 0.632357 0.211861
3 3 0.259692 0.674331 0.275143
4 4 0.33495 0.604644 0.219324
5 4 0.324837 0.668435 0.212406
6 4 0.288112 0.623616 0.176616
7 5 0.23487 0.598777 0.252022
8 6 0.193716 0.595099 0.28411
9 1 0.19795 0.603419 0.339545
10 3 0.174986 0.63609 0.361203
11 7 0.164172 0.546701 0.280625
12 8 0.14643 0.537474 0.230468
13 8 0.172444 0.508435 0.19798
14 8 0.107851 0.565278 0.212991
15 8 0.154975 0.501591 0.149958
16 8 0.0907793 0.558104 0.16326
17 8 0.113026 0.52443 0.131744
18 9 0.0962739 0.515121 0.0827213
19 10 0.238917 0.573591 0.22602
20 4 0.171002 0.624238 0.270258
21 4 0.186733 0.514534 0.290814
22 4 0.132757 0.544205 0.306206
23 11 0.201952 0.484937 0.209555
24 11 0.0940464 0.594763 0.235283
25 11 0.173024 0.475032 0.12703
26 11 0.0594825 0.57725 0.148741
27 10 0.070877 0.538893 0.0782467
28 5 0.22325 0.570647 0.367755
29 7 0.226319 0.575129 0.422033
30 1 0.25905 0.534429 0.441816
31 3 0.29971 0.542413 0.455918
32 10 0.237634 0.541563 0.351203
33 4 0.190584 0.568629 0.437449
34 4 0.244025 0.608047 0.434673
35 5 0.237503 0.489851 0.450609
36 7 0.262139 0.444528 0.464898
37 1 0.249142 0.433911 0.516232
38 3 0.208974 0.445843 0.53251
39 10 0.201686 0.49016 0.443989
40 4 0.300374 0.454227 0.463958
41 4 0.252916 0.414705 0.440765
42 5 0.285209 0.417937 0.547378
43 6 0.279155 0.412199 0.599156
44 1 0.314331 0.449416 0.623774
45 3 0.314723 0.492525 0.609753
46 7 0.288947 0.357546 0.619093
47 8 0.252864 0.324136 0.594414
48 8 0.267088 0.294679 0.553144
49 8 0.206763 0.320385 0.616436
50 8 0.23524 0.260871 0.531431
51 8 0.17665 0.283353 0.59632
52 8 0.19157 0.254069 0.558465
53 10 0.31734 0.409701 0.532327
54 4 0.243271 0.42531 0.609022
55 4 0.28022 0.358413 0.658724
56 4 0.326739 0.345519 0.61045
57 11 0.303091 0.304197 0.540104
58 11 0.197174 0.339674 0.649494
59 11 0.24531 0.240738 0.499025
60 11 0.143007 0.277223 0.616003
61 11 0.164698 0.226484 0.549872
62 5 0.346864 0.432221 0.658024
63 6 0.381705 0.462622 0.68508
64 1 0.423498 0.487822 0.65776
65 3 0.459705 0.463288 0.644546
66 7 0.405717 0.433656 0.728214
67 7 0.438397 0.462882 0.761046
68 12 0.408416 0.512102 0.793841
69 2 0.400417 0.481026 0.8514
70 10 0.346286 0.397545 0.669161
71 4 0.361302 0.492596 0.700641
72 4 0.427181 0.404648 0.70963
73 4 0.377638 0.415045 0.750859
74 4 0.454536 0.440894 0.791106
75 4 0.469675 0.478542 0.740455
76 4 0.375707 0.500589 0.876977
77 4 0.436591 0.476639 0.869282
78 4 0.382433 0.444673 0.849784
79 5 0.417624 0.537347 0.649927
80 2 0.459708 0.570331 0.642269
81 10 0.385173 0.553181 0.654722
82 4 0.496113 0.553236 0.647746
83 4 0.464138 0.605581 0.661899
84 4 0.459908 0.585555 0.604643
ITEM: TIMESTEP
40
ITEM: NUMBER OF ATOMS
84
ITEM: BOX BOUNDS
36.8402 64.2116
41.0137 68.3851
29.7681 57.1395
ITEM: ATOMS id type xs ys zs
1 1 0.264819 0.635902 0.247624
2 2 0.303165 0.634655 0.211469
3 3 0.260398 0.670613 0.274788
4 4 0.324671 0.601398 0.220359
5 4 0.330563 0.664572 0.212819
6 4 0.287339 0.627902 0.174706
7 5 0.235061 0.597935 0.249725
8 6 0.194673 0.594942 0.284448
9 1 0.198756 0.600459 0.340442
10 3 0.175106 0.634367 0.357548
11 7 0.167923 0.546415 0.279215
12 8 0.150331 0.540432 0.227747
13 8 0.169812 0.50367 0.198901
14 8 0.108494 0.566216 0.210798
15 8 0.154309 0.497391 0.150536
16 8 0.0902291 0.558186 0.164905
17 8 0.114345 0.525148 0.133372
18 9 0.0993469 0.514659 0.0845911
19 10 0.241415 0.571785 0.225176
20 4 0.169111 0.622476 0.272392
21 4 0.190072 0.513807 0.288891
22 4 0.13524 0.544688 0.303223
23 11 0.201776 0.483814 0.210772
24 11 0.0875463 0.592128 0.231931
25 11 0.172772 0.471872 0.126771
26 11 0.0565819 0.57614 0.154787
27 10 0.0774004 0.541125 0.0776598
28 5 0.22385 0.5695 0.37045
29 7 0.225628 0.573004 0.42217
30 1 0.258347 0.534583 0.445552
31 3 0.301181 0.542379 0.454541
32 10 0.243214 0.542968 0.354707
33 4 0.188922 0.568483 0.435923
34 4 0.244619 0.606602 0.430376
35 5 0.238428 0.488299 0.448843
36 7 0.265548 0.44583 0.4652
37 1 0.251834 0.43746 0.517479
38 3 0.210347 0.449098 0.531151
39 10 0.202878 0.48367 0.442395
40 4 0.304404 0.449993 0.459743
41 4 0.251958 0.414667 0.445173
42 5 0.2844 0.414307 0.545916
43 6 0.281638 0.412003 0.597453
44 1 0.317388 0.448085 0.62077
45 3 0.31826 0.49074 0.60811
46 7 0.291505 0.358865 0.614612
47 8 0.255201 0.325959 0.594908
48 8 0.267797 0.300828 0.552488
49 8 0.209974 0.317405 0.615975
50 8 0.235962 0.263198 0.537829
51 8 0.175821 0.28273 0.597689
52 8 0.189644 0.255998 0.55601
53 10 0.316043 0.407774 0.529099
54 4 0.246585 0.423414 0.611523
55 4 0.28933 0.356146 0.655052
56 4 0.328056 0.349613 0.59958
57 11 0.303567 0.307677 0.537308
58 11 0.199194 0.338481 0.647542
59 11 0.247896 0.240186 0.508081
60 11 0.140732 0.283677 0.61571
61 11 0.167975 0.229696 0.536121
62 5 0.347175 0.433683 0.656684
63 6 0.379863 0.462584 0.683698
64 1 0.422376 0.486853 0.658267
65 3 0.459083 0.465431 0.644184
66 7 0.404346 0.433978 0.72612
67 7 0.436199 0.464244 0.761078
68 12 0.406915 0.514483 0.795786
69 2 0.401783 0.481657 0.851338
70 10 0.349027 0.399031 0.667757
71 4 0.358646 0.490259 0.702158
72 4 0.426875 0.402831 0.713087
73 4 0.37414 0.418469 0.748359
74 4 0.453527 0.441832 0.790146
75 4 0.466492 0.479694 0.738915
76 4 0.378132 0.499973 0.878774
77 4 0.436026 0.469598 0.86949
78 4 0.379774 0.447709 0.848064
79 5 0.419871 0.534103 0.654149
80 2 0.455577 0.564941 0.637892
81 10 0.393529 0.551907 0.671922
82 4 0.492266 0.549154 0.645117
83 4 0.459639 0.599543 0.65872
84 4 0.453248 0.578975 0.599877
ITEM: TIMESTEP
50
ITEM: NUMBER OF ATOMS
84
ITEM: BOX BOUNDS
36.8402 64.2116
41.0137 68.3851
29.7681 57.1395
ITEM: ATOMS id type xs ys zs
1 1 0.264715 0.635234 0.248417
2 2 0.30265 0.634753 0.208735
3 3 0.261806 0.670692 0.276612
4 4 0.325849 0.601446 0.20877
5 4 0.32802 0.665171 0.217604
6 4 0.289595 0.643168 0.171234
7 5 0.235756 0.595421 0.254124
8 6 0.192744 0.592722 0.285862
9 1 0.199071 0.600039 0.339879
10 3 0.177408 0.635236 0.358433
11 7 0.166094 0.54348 0.276182
12 8 0.149987 0.538531 0.225671
13 8 0.169387 0.501787 0.197795
14 8 0.110829 0.56789 0.208383
15 8 0.151819 0.492844 0.151045
16 8 0.0913948 0.557718 0.162511
17 8 0.114512 0.523086 0.134454
18 9 0.101221 0.515742 0.0867608
19 10 0.241636 0.567447 0.231549
20 4 0.16769 0.621398 0.275525
21 4 0.191394 0.512619 0.2836
22 4 0.133302 0.540622 0.299932
23 11 0.196338 0.477663 0.21356
24 11 0.0920089 0.594538 0.230578
25 11 0.165284 0.463121 0.128862
26 11 0.0653775 0.582571 0.146316
27 10 0.0897391 0.547369 0.0768594
28 5 0.225363 0.568282 0.367349
29 7 0.224871 0.571318 0.421281
30 1 0.259417 0.533895 0.441886
31 3 0.300001 0.542769 0.456397
32 10 0.238134 0.538886 0.350039
33 4 0.189514 0.561065 0.435479
34 4 0.23791 0.606539 0.43338
35 5 0.23967 0.489216 0.446108
36 7 0.265581 0.448516 0.466046
37 1 0.251678 0.438252 0.516246
38 3 0.213159 0.453138 0.53403
39 10 0.204777 0.48248 0.438116
40 4 0.30471 0.452533 0.469161
41 4 0.257572 0.4176 0.442874
42 5 0.284998 0.415603 0.544271
43 6 0.282783 0.413561 0.596714
44 1 0.319569 0.448135 0.618836
45 3 0.320799 0.49124 0.605617
46 7 0.296608 0.361736 0.614313
47 8 0.256448 0.327207 0.595536
48 8 0.267781 0.297938 0.552473
49 8 0.210628 0.317085 0.618652
50 8 0.235324 0.263011 0.533841
51 8 0.176677 0.28564 0.596981
52 8 0.190741 0.258046 0.55566
53 10 0.309892 0.396316 0.525967
54 4 0.247513 0.419212 0.613476
55 4 0.294114 0.357691 0.654623
56 4 0.333395 0.351205 0.600772
57 11 0.302389 0.302191 0.534003
58 11 0.200125 0.335349 0.652013
59 11 0.245725 0.242915 0.501517
60 11 0.142863 0.276026 0.6149
61 11 0.168217 0.22968 0.540011
62 5 0.350058 0.429437 0.654173
63 6 0.378312 0.462018 0.686338
64 1 0.421294 0.487131 0.659668
65 3 0.456891 0.464713 0.64092
66 7 0.400346 0.434385 0.729604
67 7 0.436079 0.465572 0.763474
68 12 0.405545 0.516303 0.795854
69 2 0.400599 0.480927 0.852734
70 10 0.347362 0.394065 0.662438
71 4 0.356118 0.490939 0.701434
72 4 0.423008 0.403564 0.716038
73 4 0.369994 0.416998 0.750196
74 4 0.448741 0.436689 0.789027
75 4 0.46767 0.481412 0.743509
76 4 0.38511 0.499479 0.885345
77 4 0.437224 0.467634 0.864112
78 4 0.379673 0.446148 0.852795
79 5 0.419236 0.536369 0.660035
80 2 0.455225 0.56317 0.633538
81 10 0.389072 0.554809 0.668805
82 4 0.493643 0.550115 0.634632
83 4 0.458594 0.601645 0.646021
84 4 0.445423 0.56781 0.594424
ITEM: TIMESTEP
60
ITEM: NUMBER OF ATOMS
84
ITEM: BOX BOUNDS
36.8402 64.2116
41.0137 68.3851
29.7681 57.1395
ITEM: ATOMS id type xs ys zs
1 1 0.266101 0.635122 0.251149
2 2 0.299777 0.635012 0.210403
3 3 0.261783 0.671322 0.276906
4 4 0.312823 0.598035 0.199913
5 4 0.329664 0.662471 0.210891
6 4 0.278132 0.650835 0.179929
7 5 0.238073 0.594457 0.257328
8 6 0.192386 0.5911 0.284102
9 1 0.197791 0.599882 0.338564
10 3 0.180641 0.634862 0.363286
11 7 0.163801 0.541564 0.27972
12 8 0.148348 0.535046 0.227525
13 8 0.168162 0.498609 0.198496
14 8 0.113542 0.567882 0.207827
15 8 0.148633 0.488824 0.151994
16 8 0.0968099 0.560225 0.1577
17 8 0.112418 0.519956 0.131481
18 9 0.100014 0.515935 0.0802996
19 10 0.246815 0.564528 0.238495
20 4 0.169218 0.620488 0.271591
21 4 0.188518 0.510602 0.28855
22 4 0.130905 0.543093 0.303448
23 11 0.198289 0.477263 0.21241
24 11 0.103604 0.599149 0.229747
25 11 0.164822 0.461432 0.128661
26 11 0.0675746 0.581517 0.141926
27 10 0.076375 0.541102 0.0741366
28 5 0.224127 0.567006 0.363591
29 7 0.225486 0.571334 0.416864
30 1 0.259533 0.533722 0.440679
31 3 0.299082 0.54455 0.456762
32 10 0.241416 0.540169 0.346051
33 4 0.189434 0.563332 0.430758
34 4 0.237831 0.607274 0.427486
35 5 0.239893 0.489057 0.442669
36 7 0.266005 0.448355 0.464598
37 1 0.252199 0.440994 0.517509
38 3 0.214508 0.457928 0.537978
39 10 0.206174 0.48201 0.430832
40 4 0.305358 0.450823 0.46605
41 4 0.258942 0.414345 0.445881
42 5 0.286302 0.415772 0.544387
43 6 0.284386 0.412361 0.595346
44 1 0.321821 0.447863 0.617961
45 3 0.322805 0.49137 0.606497
46 7 0.292845 0.357458 0.614107
47 8 0.258732 0.321671 0.594958
48 8 0.270572 0.295793 0.552869
49 8 0.214373 0.319697 0.615798
50 8 0.234475 0.265938 0.530951
51 8 0.1809 0.286778 0.59872
52 8 0.188717 0.258154 0.556556
53 10 0.319851 0.414385 0.530269
54 4 0.250397 0.424298 0.611445
55 4 0.291464 0.35338 0.654468
56 4 0.330343 0.345004 0.604817
57 11 0.305733 0.299867 0.535435
58 11 0.208096 0.343247 0.646829
59 11 0.246767 0.247398 0.498362
60 11 0.143268 0.283937 0.610237
61 11 0.158335 0.236412 0.543862
62 5 0.352459 0.431178 0.653288
63 6 0.380774 0.461574 0.687489
64 1 0.419621 0.488744 0.661951
65 3 0.449834 0.464332 0.640478
66 7 0.398736 0.433997 0.734609
67 7 0.432014 0.465585 0.767046
68 12 0.40432 0.515643 0.796905
69 2 0.400602 0.482603 0.851705
70 10 0.352241 0.39491 0.656665
71 4 0.35772 0.492204 0.696825
72 4 0.417327 0.399287 0.724755
73 4 0.366675 0.423342 0.757106
74 4 0.449857 0.439273 0.792282
75 4 0.460964 0.480456 0.742792
76 4 0.385014 0.507218 0.879965
77 4 0.434434 0.466322 0.867126
78 4 0.375389 0.4511 0.8473
79 5 0.419666 0.538249 0.660914
80 2 0.454971 0.564718 0.629974
81 10 0.397151 0.557126 0.682443
82 4 0.494052 0.553774 0.630603
83 4 0.45484 0.604663 0.63718
84 4 0.445734 0.559533 0.590791
ITEM: TIMESTEP
70
ITEM: NUMBER OF ATOMS
84
ITEM: BOX BOUNDS
36.8402 64.2116
41.0137 68.3851
29.7681 57.1395
ITEM: ATOMS id type xs ys zs
1 1 0.262999 0.635848 0.251793
2 2 0.296632 0.635018 0.210056
3 3 0.259715 0.671541 0.278943
4 4 0.306219 0.596036 0.204051
5 4 0.33051 0.655098 0.219883
6 4 0.284736 0.653312 0.175832
7 5 0.238218 0.59394 0.260864
8 6 0.191988 0.593433 0.286563
9 1 0.199497 0.598203 0.339986
10 3 0.180237 0.631967 0.362979
11 7 0.163752 0.544007 0.280021
12 8 0.146725 0.53423 0.226907
13 8 0.16186 0.493205 0.19904
14 8 0.114886 0.565803 0.203635
15 8 0.146467 0.486647 0.149886
16 8 0.100699 0.560774 0.155258
17 8 0.114849 0.52191 0.12743
18 9 0.0973258 0.514557 0.0783232
19 10 0.246812 0.562996 0.243678
20 4 0.169306 0.62398 0.276109
21 4 0.18683 0.512553 0.291227
22 4 0.128945 0.546332 0.300771
23 11 0.186335 0.466779 0.215149
24 11 0.101122 0.595901 0.225118
25 11 0.156748 0.454291 0.129781
26 11 0.0803525 0.591198 0.140518
27 10 0.0773054 0.542016 0.0696454
28 5 0.224961 0.564859 0.363785
29 7 0.228038 0.571002 0.413779
30 1 0.258618 0.533547 0.439261
31 3 0.296861 0.546174 0.45544
32 10 0.234765 0.533314 0.348436
33 4 0.191532 0.571674 0.428737
34 4 0.247721 0.604626 0.420017
35 5 0.241084 0.488528 0.440621
36 7 0.263282 0.447715 0.465881
37 1 0.256424 0.444144 0.51922
38 3 0.218563 0.459741 0.537777
39 10 0.207733 0.480341 0.428478
40 4 0.302197 0.444925 0.459984
41 4 0.248989 0.413009 0.453712
42 5 0.289284 0.418698 0.545878
43 6 0.286934 0.410549 0.596701
44 1 0.322036 0.44641 0.621672
45 3 0.322741 0.489906 0.60895
46 7 0.299199 0.358522 0.615511
47 8 0.262104 0.32277 0.591722
48 8 0.271669 0.293048 0.550072
49 8 0.214672 0.319033 0.61383
50 8 0.233912 0.26361 0.532364
51 8 0.17806 0.28759 0.598522
52 8 0.188646 0.261467 0.55543
53 10 0.30964 0.396613 0.525271
54 4 0.252276 0.42012 0.612953
55 4 0.295264 0.355217 0.655775
56 4 0.3376 0.346769 0.609614
57 11 0.305269 0.29254 0.529392
58 11 0.209143 0.341339 0.645904
59 11 0.238291 0.242414 0.499373
60 11 0.143937 0.276958 0.615239
61 11 0.161932 0.235966 0.541539
62 5 0.353969 0.431869 0.656931
63 6 0.374782 0.464513 0.690342
64 1 0.419831 0.489491 0.662485
65 3 0.448639 0.464338 0.637707
66 7 0.395701 0.435645 0.734542
67 7 0.432456 0.462871 0.768134
68 12 0.402911 0.516857 0.797111
69 2 0.396717 0.483364 0.856372
70 10 0.359925 0.396411 0.662766
71 4 0.346952 0.49031 0.701156
72 4 0.413805 0.402854 0.718905
73 4 0.366115 0.422652 0.759107
74 4 0.445846 0.438021 0.797301
75 4 0.465449 0.468112 0.745079
76 4 0.383623 0.506672 0.886914
77 4 0.433413 0.471619 0.869137
78 4 0.375771 0.449051 0.850766
79 5 0.422728 0.53867 0.660545
80 2 0.452527 0.565815 0.630152
81 10 0.39556 0.557055 0.676377
82 4 0.49132 0.558506 0.639596
83 4 0.446072 0.60509 0.63811
84 4 0.451437 0.553354 0.591538
ITEM: TIMESTEP
80
ITEM: NUMBER OF ATOMS
84
ITEM: BOX BOUNDS
36.8402 64.2116
41.0137 68.3851
29.7681 57.1395
ITEM: ATOMS id type xs ys zs
1 1 0.261979 0.63515 0.253733
2 2 0.296557 0.6353 0.211415
3 3 0.256577 0.672121 0.278736
4 4 0.305291 0.598598 0.19644
5 4 0.329866 0.655089 0.223515
6 4 0.27894 0.65786 0.182636
7 5 0.235135 0.595864 0.259446
8 6 0.189622 0.592365 0.286422
9 1 0.197215 0.595691 0.340938
10 3 0.178351 0.630778 0.362815
11 7 0.161561 0.543346 0.274795
12 8 0.145458 0.534995 0.222995
13 8 0.155616 0.489416 0.198563
14 8 0.115747 0.570006 0.199923
15 8 0.14338 0.484616 0.149424
16 8 0.10193 0.562897 0.151965
17 8 0.117663 0.52241 0.126056
18 9 0.0977332 0.51366 0.0799319
19 10 0.246435 0.566954 0.240386
20 4 0.166511 0.622701 0.276296
21 4 0.184946 0.511858 0.285246
22 4 0.125706 0.541158 0.293694
23 11 0.173609 0.459093 0.216274
24 11 0.10242 0.60058 0.221007
25 11 0.15093 0.450406 0.131271
26 11 0.0774298 0.590223 0.137475
27 10 0.0758473 0.540094 0.0726954
28 5 0.223822 0.562073 0.364153
29 7 0.230292 0.572052 0.416759
30 1 0.260347 0.533395 0.438974
31 3 0.29869 0.544472 0.457118
32 10 0.243913 0.538255 0.345289
33 4 0.195772 0.570356 0.435794
34 4 0.248802 0.605932 0.42491
35 5 0.23961 0.487806 0.441524
36 7 0.263269 0.445914 0.463757
37 1 0.257696 0.441867 0.520012
38 3 0.222862 0.464677 0.540149
39 10 0.206354 0.4799 0.428942
40 4 0.301564 0.445776 0.45425
41 4 0.247604 0.412306 0.450268
42 5 0.291982 0.416729 0.547056
43 6 0.290162 0.409797 0.599078
44 1 0.322627 0.446359 0.624742
45 3 0.321385 0.48999 0.612035
46 7 0.301805 0.355938 0.610775
47 8 0.262113 0.324464 0.591391
48 8 0.269316 0.294137 0.551108
49 8 0.217941 0.319301 0.615277
50 8 0.234196 0.260009 0.532379
51 8 0.181924 0.291049 0.595248
52 8 0.188086 0.258663 0.552904
53 10 0.322354 0.409821 0.528172
54 4 0.256384 0.419674 0.616922
55 4 0.307192 0.347408 0.650091
56 4 0.336775 0.344586 0.593578
57 11 0.305251 0.294032 0.534812
58 11 0.209109 0.339996 0.64769
59 11 0.238966 0.234603 0.502569
60 11 0.146711 0.293625 0.612864
61 11 0.16001 0.235835 0.537172
62 5 0.349825 0.432039 0.662282
63 6 0.379745 0.46615 0.689003
64 1 0.418025 0.489781 0.661171
65 3 0.448183 0.464943 0.638991
66 7 0.39532 0.437416 0.733361
67 7 0.427683 0.463817 0.770466
68 12 0.402927 0.515237 0.799124
69 2 0.393732 0.486816 0.857028
70 10 0.348116 0.397151 0.672613
71 4 0.358648 0.495141 0.705473
72 4 0.416076 0.404872 0.720809
73 4 0.360378 0.424574 0.749537
74 4 0.441456 0.437205 0.797846
75 4 0.463335 0.475379 0.754885
76 4 0.37604 0.514838 0.880465
77 4 0.429653 0.480495 0.874838
78 4 0.372559 0.4529 0.85003
79 5 0.418833 0.539134 0.662248
80 2 0.454077 0.567043 0.631972
81 10 0.393267 0.555296 0.682544
82 4 0.492143 0.565997 0.646023
83 4 0.443199 0.606138 0.631054
84 4 0.458009 0.550378 0.595171
ITEM: TIMESTEP
90
ITEM: NUMBER OF ATOMS
84
ITEM: BOX BOUNDS
36.8402 64.2116
41.0137 68.3851
29.7681 57.1395
ITEM: ATOMS id type xs ys zs
1 1 0.257396 0.636869 0.250773
2 2 0.297483 0.638373 0.213594
3 3 0.25594 0.672451 0.278139
4 4 0.301428 0.600206 0.200354
5 4 0.332615 0.651325 0.229262
6 4 0.282251 0.658847 0.182029
7 5 0.230963 0.595225 0.255411
8 6 0.186406 0.588499 0.283516
9 1 0.193313 0.595342 0.34001
10 3 0.175398 0.629513 0.363677
11 7 0.159423 0.539985 0.273906
12 8 0.144026 0.536512 0.221832
13 8 0.15206 0.492011 0.198802
14 8 0.119484 0.574124 0.196149
15 8 0.138211 0.484122 0.150332
16 8 0.1027 0.566097 0.14696
17 8 0.113453 0.520285 0.125707
18 9 0.0992306 0.5125 0.077481
19 10 0.241909 0.566989 0.23517
20 4 0.163237 0.617738 0.270665
21 4 0.184428 0.509114 0.282231
22 4 0.125698 0.533806 0.29563
23 11 0.171466 0.463784 0.218387
24 11 0.116879 0.609437 0.213558
25 11 0.148312 0.450009 0.133269
26 11 0.081436 0.59279 0.127155
27 10 0.0710106 0.532584 0.0719684
28 5 0.222255 0.565088 0.365429
29 7 0.229902 0.57084 0.418236
30 1 0.262239 0.532572 0.44421
31 3 0.30369 0.538817 0.460024
32 10 0.235754 0.53514 0.34969
33 4 0.195388 0.572404 0.437295
34 4 0.250509 0.604031 0.423768
35 5 0.241222 0.487806 0.444584
36 7 0.264303 0.444871 0.466282
37 1 0.260483 0.444444 0.519776
38 3 0.227353 0.465852 0.542872
39 10 0.208226 0.483513 0.429766
40 4 0.303124 0.444844 0.459227
41 4 0.246369 0.412384 0.452871
42 5 0.292632 0.418656 0.545264
43 6 0.28861 0.408968 0.59616
44 1 0.319295 0.446933 0.625509
45 3 0.32101 0.490642 0.61336
46 7 0.305117 0.353228 0.606157
47 8 0.26482 0.319175 0.589525
48 8 0.273183 0.291814 0.548269
49 8 0.215913 0.320606 0.612745
50 8 0.23749 0.260922 0.533187
51 8 0.178098 0.292206 0.595311
52 8 0.190392 0.261469 0.55609
53 10 0.317911 0.401226 0.525669
54 4 0.251977 0.413197 0.610196
55 4 0.311016 0.346884 0.645811
56 4 0.34016 0.344573 0.587593
57 11 0.30759 0.294558 0.529152
58 11 0.208695 0.341689 0.645307
59 11 0.240705 0.23584 0.502898
60 11 0.142815 0.291342 0.612954
61 11 0.161821 0.237445 0.543305
62 5 0.344565 0.43343 0.664354
63 6 0.376745 0.467302 0.691651
64 1 0.419306 0.490087 0.662747
65 3 0.450959 0.466822 0.638721
66 7 0.398086 0.434446 0.736714
67 7 0.430256 0.462145 0.771679
68 12 0.401651 0.516882 0.800378
69 2 0.389238 0.48955 0.861904
70 10 0.33934 0.400302 0.678569
71 4 0.356494 0.498095 0.705743
72 4 0.418771 0.403003 0.721515
73 4 0.366151 0.420537 0.757551
74 4 0.442416 0.434262 0.798552
75 4 0.465998 0.47435 0.75681
76 4 0.366484 0.515825 0.882867
77 4 0.42448 0.48452 0.881404
78 4 0.368352 0.455531 0.854551
79 5 0.418548 0.540393 0.659993
80 2 0.45529 0.567828 0.635929
81 10 0.391437 0.558794 0.675904
82 4 0.488419 0.571555 0.659084
83 4 0.437825 0.603767 0.628791
84 4 0.462704 0.550078 0.600188
ITEM: TIMESTEP
100
ITEM: NUMBER OF ATOMS
84
ITEM: BOX BOUNDS
36.8402 64.2116
41.0137 68.3851
29.7681 57.1395
ITEM: ATOMS id type xs ys zs
1 1 0.256933 0.635706 0.249535
2 2 0.297 0.638199 0.212949
3 3 0.252072 0.670685 0.277506
4 4 0.306866 0.602359 0.196648
5 4 0.328799 0.647988 0.236199
6 4 0.287796 0.664993 0.183882
7 5 0.225871 0.59806 0.251868
8 6 0.185201 0.590542 0.286785
9 1 0.19364 0.595816 0.341521
10 3 0.170808 0.630132 0.359704
11 7 0.159506 0.540759 0.274803
12 8 0.142411 0.537388 0.220707
13 8 0.150689 0.493041 0.198038
14 8 0.121795 0.575447 0.192708
15 8 0.132439 0.484384 0.14999
16 8 0.105499 0.566871 0.144862
17 8 0.109667 0.520375 0.12347
18 9 0.0972636 0.510946 0.0730089
19 10 0.231502 0.570277 0.228995
20 4 0.158894 0.618879 0.278919
21 4 0.18394 0.509317 0.28267
22 4 0.128573 0.535811 0.300614
23 11 0.166268 0.464691 0.220631
24 11 0.110946 0.609277 0.209875
25 11 0.135909 0.448438 0.134092
26 11 0.0934357 0.596668 0.121981
27 10 0.0842531 0.540194 0.0586766
28 5 0.222071 0.563977 0.368338
29 7 0.233358 0.57101 0.418781
30 1 0.264075 0.53076 0.442673
31 3 0.303409 0.537393 0.4613
32 10 0.242741 0.538193 0.353019
33 4 0.199298 0.569011 0.438601
34 4 0.251918 0.605412 0.424158
35 5 0.241644 0.487407 0.447601
36 7 0.265747 0.446124 0.468857
37 1 0.262363 0.446435 0.521478
38 3 0.228369 0.468888 0.544192
39 10 0.206522 0.487018 0.437954
40 4 0.304029 0.444713 0.459407
41 4 0.24313 0.417034 0.454746
42 5 0.293896 0.416126 0.544237
43 6 0.290623 0.408603 0.594815
44 1 0.318493 0.447474 0.625915
45 3 0.317769 0.490745 0.612001
46 7 0.305056 0.356267 0.607413
47 8 0.267354 0.322246 0.587488
48 8 0.272431 0.288073 0.55025
49 8 0.221525 0.323651 0.610437
50 8 0.235433 0.260208 0.531437
51 8 0.183628 0.291041 0.592827
52 8 0.189206 0.259432 0.554771
53 10 0.320596 0.399633 0.525749
54 4 0.252843 0.409401 0.606168
55 4 0.309525 0.350156 0.64729