ITEM: TIMESTEP
0
ITEM: NUMBER OF ENTRIES
1365
ITEM: ENTRIES index c_bnd[1] c_bnd[2] c_bnd[3] 
1 3 1 7 
2 2 1 3 
3 1 1 2 
4 -4 2 5 
5 -4 2 6 
6 -4 2 4 
7 -6 7 19 
8 5 7 8 
9 1 8 9 
10 7 8 11 
11 -8 8 20 
12 3 9 28 
13 2 9 10 
14 -10 11 21 
15 9 11 12 
16 -10 11 22 
17 11 12 14 
18 11 12 13 
19 -12 13 23 
20 11 13 15 
21 -12 14 24 
22 11 14 16 
23 11 15 17 
24 -12 15 25 
25 11 16 17 
26 -12 16 26 
27 13 17 18 
28 -14 18 27 
29 5 28 29 
30 -6 28 32 
31 1 29 30 
32 -8 29 33 
33 -8 29 34 
34 3 30 35 
35 2 30 31 
36 5 35 36 
37 -6 35 39 
38 1 36 37 
39 -8 36 40 
40 -8 36 41 
41 2 37 38 
42 3 37 42 
43 -6 42 53 
44 5 42 43 
45 1 43 44 
46 7 43 46 
47 -8 43 54 
48 3 44 62 
49 2 44 45 
50 -10 46 56 
51 -10 46 55 
52 9 46 47 
53 11 47 48 
54 11 47 49 
55 11 48 50 
56 -12 48 57 
57 11 49 51 
58 -12 49 58 
59 11 50 52 
60 -12 50 59 
61 11 51 52 
62 -12 51 60 
63 -12 52 61 
64 -6 62 70 
65 5 62 63 
66 7 63 66 
67 1 63 64 
68 -8 63 71 
69 2 64 65 
70 3 64 79 
71 15 66 67 
72 -10 66 73 
73 -10 66 72 
74 -10 67 75 
75 -10 67 74 
76 16 67 68 
77 17 68 69 
78 -4 69 76 
79 -4 69 78 
80 -4 69 77 
81 5 79 80 
82 -6 79 81 
83 -4 80 84 
84 -4 80 83 
85 -4 80 82 
86 -18 85 86 
87 -18 85 87 
88 -18 88 90 
89 -18 88 89 
90 -18 91 93 
91 -18 91 92 
92 -18 94 96 
93 -18 94 95 
94 -18 97 98 
95 -18 97 99 
96 -18 100 101 
97 -18 100 102 
98 -18 103 104 
99 -18 103 105 
100 -18 106 107 
101 -18 106 108 
102 -18 109 111 
103 -18 109 110 
104 -18 112 114 
105 -18 112 113 
106 -18 115 116 
107 -18 115 117 
108 -18 118 120 
109 -18 118 119 
110 -18 121 123 
111 -18 121 122 
112 -18 124 126 
113 -18 124 125 
114 -18 127 128 
115 -18 127 129 
116 -18 130 132 
117 -18 130 131 
118 -18 133 134 
119 -18 133 135 
120 -18 136 137 
121 -18 136 138 
122 -18 139 140 
123 -18 139 141 
124 -18 142 144 
125 -18 142 143 
126 -18 145 147 
127 -18 145 146 
128 -18 148 150 
129 -18 148 149 
130 -18 151 152 
131 -18 151 153 
132 -18 154 156 
133 -18 154 155 
134 -18 157 159 
135 -18 157 158 
136 -18 160 162 
137 -18 160 161 
138 -18 163 164 
139 -18 163 165 
140 -18 166 168 
141 -18 166 167 
142 -18 169 171 
143 -18 169 170 
144 -18 172 174 
145 -18 172 173 
146 -18 175 177 
147 -18 175 176 
148 -18 178 180 
149 -18 178 179 
150 -18 181 182 
151 -18 181 183 
152 -18 184 186 
153 -18 184 185 
154 -18 187 188 
155 -18 187 189 
156 -18 190 191 
157 -18 190 192 
158 -18 193 194 
159 -18 193 195 
160 -18 196 197 
161 -18 196 198 
162 -18 199 201 
163 -18 199 200 
164 -18 202 204 
165 -18 202 203 
166 -18 205 206 
167 -18 205 207 
168 -18 208 210 
169 -18 208 209 
170 -18 211 212 
171 -18 211 213 
172 -18 214 215 
173 -18 214 216 
174 -18 217 219 
175 -18 217 218 
176 -18 220 222 
177 -18 220 221 
178 -18 223 224 
179 -18 223 225 
180 -18 226 228 
181 -18 226 227 
182 -18 229 231 
183 -18 229 230 
184 -18 232 233 
185 -18 232 234 
186 -18 235 236 
187 -18 235 237 
188 -18 238 240 
189 -18 238 239 
190 -18 241 242 
191 -18 241 243 
192 -18 244 246 
193 -18 244 245 
194 -18 247 248 
195 -18 247 249 
196 -18 250 251 
197 -18 250 252 
198 -18 253 254 
199 -18 253 255 
200 -18 256 257 
201 -18 256 258 
202 -18 259 261 
203 -18 259 260 
204 -18 262 264 
205 -18 262 263 
206 -18 265 266 
207 -18 265 267 
208 -18 268 269 
209 -18 268 270 
210 -18 271 272 
211 -18 271 273 
212 -18 274 275 
213 -18 274 276 
214 -18 277 279 
215 -18 277 278 
216 -18 280 282 
217 -18 280 281 
218 -18 283 284 
219 -18 283 285 
220 -18 286 287 
221 -18 286 288 
222 -18 289 290 
223 -18 289 291 
224 -18 292 294 
225 -18 292 293 
226 -18 295 296 
227 -18 295 297 
228 -18 298 299 
229 -18 298 300 
230 -18 301 303 
231 -18 301 302 
232 -18 304 305 
233 -18 304 306 
234 -18 307 309 
235 -18 307 308 
236 -18 310 311 
237 -18 310 312 
238 -18 313 314 
239 -18 313 315 
240 -18 316 317 
241 -18 316 318 
242 -18 319 321 
243 -18 319 320 
244 -18 322 323 
245 -18 322 324 
246 -18 325 327 
247 -18 325 326 
248 -18 328 329 
249 -18 328 330 
250 -18 331 332 
251 -18 331 333 
252 -18 334 335 
253 -18 334 336 
254 -18 337 339 
255 -18 337 338 
256 -18 340 341 
257 -18 340 342 
258 -18 343 344 
259 -18 343 345 
260 -18 346 347 
261 -18 346 348 
262 -18 349 350 
263 -18 349 351 
264 -18 352 353 
265 -18 352 354 
266 -18 355 356 
267 -18 355 357 
268 -18 358 359 
269 -18 358 360 
270 -18 361 362 
271 -18 361 363 
272 -18 364 365 
273 -18 364 366 
274 -18 367 369 
275 -18 367 368 
276 -18 370 372 
277 -18 370 371 
278 -18 373 374 
279 -18 373 375 
280 -18 376 378 
281 -18 376 377 
282 -18 379 381 
283 -18 379 380 
284 -18 382 383 
285 -18 382 384 
286 -18 385 386 
287 -18 385 387 
288 -18 388 390 
289 -18 388 389 
290 -18 391 393 
291 -18 391 392 
292 -18 394 395 
293 -18 394 396 
294 -18 397 399 
295 -18 397 398 
296 -18 400 402 
297 -18 400 401 
298 -18 403 405 
299 -18 403 404 
300 -18 406 407 
301 -18 406 408 
302 -18 409 411 
303 -18 409 410 
304 -18 412 413 
305 -18 412 414 
306 -18 415 417 
307 -18 415 416 
308 -18 418 420 
309 -18 418 419 
310 -18 421 422 
311 -18 421 423 
312 -18 424 425 
313 -18 424 426 
314 -18 427 428 
315 -18 427 429 
316 -18 430 432 
317 -18 430 431 
318 -18 433 435 
319 -18 433 434 
320 -18 436 437 
321 -18 436 438 
322 -18 439 440 
323 -18 439 441 
324 -18 442 443 
325 -18 442 444 
326 -18 445 447 
327 -18 445 446 
328 -18 448 449 
329 -18 448 450 
330 -18 451 453 
331 -18 451 452 
332 -18 454 456 
333 -18 454 455 
334 -18 457 458 
335 -18 457 459 
336 -18 460 462 
337 -18 460 461 
338 -18 463 465 
339 -18 463 464 
340 -18 466 467 
341 -18 466 468 
342 -18 469 470 
343 -18 469 471 
344 -18 472 473 
345 -18 472 474 
346 -18 475 476 
347 -18 475 477 
348 -18 478 479 
349 -18 478 480 
350 -18 481 482 
351 -18 481 483 
352 -18 484 485 
353 -18 484 486 
354 -18 487 489 
355 -18 487 488 
356 -18 490 492 
357 -18 490 491 
358 -18 493 495 
359 -18 493 494 
360 -18 496 497 
361 -18 496 498 
362 -18 499 501 
363 -18 499 500 
364 -18 502 503 
365 -18 502 504 
366 -18 505 507 
367 -18 505 506 
368 -18 508 509 
369 -18 508 510 
370 -18 511 513 
371 -18 511 512 
372 -18 514 516 
373 -18 514 515 
374 -18 517 518 
375 -18 517 519 
376 -18 520 521 
377 -18 520 522 
378 -18 523 525 
379 -18 523 524 
380 -18 526 528 
381 -18 526 527 
382 -18 529 530 
383 -18 529 531 
384 -18 532 533 
385 -18 532 534 
386 -18 535 536 
387 -18 535 537 
388 -18 538 540 
389 -18 538 539 
390 -18 541 542 
391 -18 541 543 
392 -18 544 546 
393 -18 544 545 
394 -18 547 549 
395 -18 547 548 
396 -18 550 551 
397 -18 550 552 
398 -18 553 555 
399 -18 553 554 
400 -18 556 557 
401 -18 556 558 
402 -18 559 561 
403 -18 559 560 
404 -18 562 563 
405 -18 562 564 
406 -18 565 567 
407 -18 565 566 
408 -18 568 570 
409 -18 568 569 
410 -18 571 573 
411 -18 571 572 
412 -18 574 575 
413 -18 574 576 
414 -18 577 579 
415 -18 577 578 
416 -18 580 581 
417 -18 580 582 
418 -18 583 585 
419 -18 583 584 
420 -18 586 588 
421 -18 586 587 
422 -18 589 590 
423 -18 589 591 
424 -18 592 594 
425 -18 592 593 
426 -18 595 597 
427 -18 595 596 
428 -18 598 600 
429 -18 598 599 
430 -18 601 602 
431 -18 601 603 
432 -18 604 606 
433 -18 604 605 
434 -18 607 609 
435 -18 607 608 
436 -18 610 611 
437 -18 610 612 
438 -18 613 615 
439 -18 613 614 
440 -18 616 618 
441 -18 616 617 
442 -18 619 620 
443 -18 619 621 
444 -18 622 623 
445 -18 622 624 
446 -18 625 627 
447 -18 625 626 
448 -18 628 629 
449 -18 628 630 
450 -18 631 632 
451 -18 631 633 
452 -18 634 635 
453 -18 634 636 
454 -18 637 639 
455 -18 637 638 
456 -18 640 642 
457 -18 640 641 
458 -18 643 644 
459 -18 643 645 
460 -18 646 647 
461 -18 646 648 
462 -18 649 650 
463 -18 649 651 
464 -18 652 653 
465 -18 652 654 
466 -18 655 657 
467 -18 655 656 
468 -18 658 660 
469 -18 658 659 
470 -18 661 663 
471 -18 661 662 
472 -18 664 665 
473 -18 664 666 
474 -18 667 669 
475 -18 667 668 
476 -18 670 672 
477 -18 670 671 
478 -18 673 674 
479 -18 673 675 
480 -18 676 677 
481 -18 676 678 
482 -18 679 681 
483 -18 679 680 
484 -18 682 684 
485 -18 682 683 
486 -18 685 686 
487 -18 685 687 
488 -18 688 690 
489 -18 688 689 
490 -18 691 693 
491 -18 691 692 
492 -18 694 695 
493 -18 694 696 
494 -18 697 698 
495 -18 697 699 
496 -18 700 701 
497 -18 700 702 
498 -18 703 704 
499 -18 703 705 
500 -18 706 707 
501 -18 706 708 
502 -18 709 710 
503 -18 709 711 
504 -18 712 714 
505 -18 712 713 
506 -18 715 716 
507 -18 715 717 
508 -18 718 719 
509 -18 718 720 
510 -18 721 722 
511 -18 721 723 
512 -18 724 726 
513 -18 724 725 
514 -18 727 728 
515 -18 727 729 
516 -18 730 731 
517 -18 730 732 
518 -18 733 735 
519 -18 733 734 
520 -18 736 737 
521 -18 736 738 
522 -18 739 741 
523 -18 739 740 
524 -18 742 743 
525 -18 742 744 
526 -18 745 746 
527 -18 745 747 
528 -18 748 750 
529 -18 748 749 
530 -18 751 753 
531 -18 751 752 
532 -18 754 756 
533 -18 754 755 
534 -18 757 758 
535 -18 757 759 
536 -18 760 762 
537 -18 760 761 
538 -18 763 764 
539 -18 763 765 
540 -18 766 767 
541 -18 766 768 
542 -18 769 770 
543 -18 769 771 
544 -18 772 774 
545 -18 772 773 
546 -18 775 777 
547 -18 775 776 
548 -18 778 780 
549 -18 778 779 
550 -18 781 783 
551 -18 781 782 
552 -18 784 786 
553 -18 784 785 
554 -18 787 789 
555 -18 787 788 
556 -18 790 791 
557 -18 790 792 
558 -18 793 795 
559 -18 793 794 
560 -18 796 797 
561 -18 796 798 
562 -18 799 801 
563 -18 799 800 
564 -18 802 803 
565 -18 802 804 
566 -18 805 806 
567 -18 805 807 
568 -18 808 809 
569 -18 808 810 
570 -18 811 813 
571 -18 811 812 
572 -18 814 815 
573 -18 814 816 
574 -18 817 818 
575 -18 817 819 
576 -18 820 821 
577 -18 820 822 
578 -18 823 824 
579 -18 823 825 
580 -18 826 828 
581 -18 826 827 
582 -18 829 830 
583 -18 829 831 
584 -18 832 834 
585 -18 832 833 
586 -18 835 837 
587 -18 835 836 
588 -18 838 839 
589 -18 838 840 
590 -18 841 842 
591 -18 841 843 
592 -18 844 845 
593 -18 844 846 
594 -18 847 848 
595 -18 847 849 
596 -18 850 852 
597 -18 850 851 
598 -18 853 854 
599 -18 853 855 
600 -18 856 858 
601 -18 856 857 
602 -18 859 861 
603 -18 859 860 
604 -18 862 863 
605 -18 862 864 
606 -18 865 866 
607 -18 865 867 
608 -18 868 869 
609 -18 868 870 
610 -18 871 873 
611 -18 871 872 
612 -18 874 875 
613 -18 874 876 
614 -18 877 878 
615 -18 877 879 
616 -18 880 882 
617 -18 880 881 
618 -18 883 884 
619 -18 883 885 
620 -18 886 887 
621 -18 886 888 
622 -18 889 891 
623 -18 889 890 
624 -18 892 894 
625 -18 892 893 
626 -18 895 896 
627 -18 895 897 
628 -18 898 899 
629 -18 898 900 
630 -18 901 903 
631 -18 901 902 
632 -18 904 905 
633 -18 904 906 
634 -18 907 908 
635 -18 907 909 
636 -18 910 911 
637 -18 910 912 
638 -18 913 915 
639 -18 913 914 
640 -18 916 917 
641 -18 916 918 
642 -18 919 920 
643 -18 919 921 
644 -18 922 924 
645 -18 922 923 
646 -18 925 927 
647 -18 925 926 
648 -18 928 930 
649 -18 928 929 
650 -18 931 932 
651 -18 931 933 
652 -18 934 935 
653 -18 934 936 
654 -18 937 939 
655 -18 937 938 
656 -18 940 942 
657 -18 940 941 
658 -18 943 945 
659 -18 943 944 
660 -18 946 948 
661 -18 946 947 
662 -18 949 950 
663 -18 949 951 
664 -18 952 953 
665 -18 952 954 
666 -18 955 956 
667 -18 955 957 
668 -18 958 960 
669 -18 958 959 
670 -18 961 963 
671 -18 961 962 
672 -18 964 965 
673 -18 964 966 
674 -18 967 969 
675 -18 967 968 
676 -18 970 972 
677 -18 970 971 
678 -18 973 975 
679 -18 973 974 
680 -18 976 978 
681 -18 976 977 
682 -18 979 981 
683 -18 979 980 
684 -18 982 983 
685 -18 982 984 
686 -18 985 987 
687 -18 985 986 
688 -18 988 989 
689 -18 988 990 
690 -18 991 993 
691 -18 991 992 
692 -18 994 996 
693 -18 994 995 
694 -18 997 998 
695 -18 997 999 
696 -18 1000 1001 
697 -18 1000 1002 
698 -18 1003 1005 
699 -18 1003 1004 
700 -18 1006 1007 
701 -18 1006 1008 
702 -18 1009 1011 
703 -18 1009 1010 
704 -18 1012 1013 
705 -18 1012 1014 
706 -18 1015 1017 
707 -18 1015 1016 
708 -18 1018 1020 
709 -18 1018 1019 
710 -18 1021 1023 
711 -18 1021 1022 
712 -18 1024 1025 
713 -18 1024 1026 
714 -18 1027 1028 
715 -18 1027 1029 
716 -18 1030 1032 
717 -18 1030 1031 
718 -18 1033 1034 
719 -18 1033 1035 
720 -18 1036 1037 
721 -18 1036 1038 
722 -18 1039 1041 
723 -18 1039 1040 
724 -18 1042 1043 
725 -18 1042 1044 
726 -18 1045 1046 
727 -18 1045 1047 
728 -18 1048 1050 
729 -18 1048 1049 
730 -18 1051 1053 
731 -18 1051 1052 
732 -18 1054 1056 
733 -18 1054 1055 
734 -18 1057 1058 
735 -18 1057 1059 
736 -18 1060 1062 
737 -18 1060 1061 
738 -18 1063 1064 
739 -18 1063 1065 
740 -18 1066 1068 
741 -18 1066 1067 
742 -18 1069 1071 
743 -18 1069 1070 
744 -18 1072 1074 
745 -18 1072 1073 
746 -18 1075 1077 
747 -18 1075 1076 
748 -18 1078 1079 
749 -18 1078 1080 
750 -18 1081 1082 
751 -18 1081 1083 
752 -18 1084 1085 
753 -18 1084 1086 
754 -18 1087 1089 
755 -18 1087 1088 
756 -18 1090 1092 
757 -18 1090 1091 
758 -18 1093 1095 
759 -18 1093 1094 
760 -18 1096 1097 
761 -18 1096 1098 
762 -18 1099 1100 
763 -18 1099 1101 
764 -18 1102 1103 
765 -18 1102 1104 
766 -18 1105 1107 
767 -18 1105 1106 
768 -18 1108 1110 
769 -18 1108 1109 
770 -18 1111 1112 
771 -18 1111 1113 
772 -18 1114 1116 
773 -18 1114 1115 
774 -18 1117 1119 
775 -18 1117 1118 
776 -18 1120 1121 
777 -18 1120 1122 
778 -18 1123 1124 
779 -18 1123 1125 
780 -18 1126 1128 
781 -18 1126 1127 
782 -18 1129 1130 
783 -18 1129 1131 
784 -18 1132 1133 
785 -18 1132 1134 
786 -18 1135 1137 
787 -18 1135 1136 
788 -18 1138 1140 
789 -18 1138 1139 
790 -18 1141 1142 
791 -18 1141 1143 
792 -18 1144 1146 
793 -18 1144 1145 
794 -18 1147 1149 
795 -18 1147 1148 
796 -18 1150 1152 
797 -18 1150 1151 
798 -18 1153 1155 
799 -18 1153 1154 
800 -18 1156 1158 
801 -18 1156 1157 
802 -18 1159 1160 
803 -18 1159 1161 
804 -18 1162 1164 
805 -18 1162 1163 
806 -18 1165 1166 
807 -18 1165 1167 
808 -18 1168 1170 
809 -18 1168 1169 
810 -18 1171 1172 
811 -18 1171 1173 
812 -18 1174 1175 
813 -18 1174 1176 
814 -18 1177 1179 
815 -18 1177 1178 
816 -18 1180 1182 
817 -18 1180 1181 
818 -18 1183 1185 
819 -18 1183 1184 
820 -18 1186 1187 
821 -18 1186 1188 
822 -18 1189 1190 
823 -18 1189 1191 
824 -18 1192 1194 
825 -18 1192 1193 
826 -18 1195 1196 
827 -18 1195 1197 
828 -18 1198 1199 
829 -18 1198 1200 
830 -18 1201 1202 
831 -18 1201 1203 
832 -18 1204 1205 
833 -18 1204 1206 
834 -18 1207 1209 
835 -18 1207 1208 
836 -18 1210 1212 
837 -18 1210 1211 
838 -18 1213 1214 
839 -18 1213 1215 
840 -18 1216 1218 
841 -18 1216 1217 
842 -18 1219 1221 
843 -18 1219 1220 
844 -18 1222 1224 
845 -18 1222 1223 
846 -18 1225 1226 
847 -18 1225 1227 
848 -18 1228 1229 
849 -18 1228 1230 
850 -18 1231 1232 
851 -18 1231 1233 
852 -18 1234 1236 
853 -18 1234 1235 
854 -18 1237 1239 
855 -18 1237 1238 
856 -18 1240 1242 
857 -18 1240 1241 
858 -18 1243 1244 
859 -18 1243 1245 
860 -18 1246 1248 
861 -18 1246 1247 
862 -18 1249 1250 
863 -18 1249 1251 
864 -18 1252 1254 
865 -18 1252 1253 
866 -18 1255 1256 
867 -18 1255 1257 
868 -18 1258 1259 
869 -18 1258 1260 
870 -18 1261 1263 
871 -18 1261 1262 
872 -18 1264 1265 
873 -18 1264 1266 
874 -18 1267 1268 
875 -18 1267 1269 
876 -18 1270 1271 
877 -18 1270 1272 
878 -18 1273 1274 
879 -18 1273 1275 
880 -18 1276 1277 
881 -18 1276 1278 
882 -18 1279 1280 
883 -18 1279 1281 
884 -18 1282 1283 
885 -18 1282 1284 
886 -18 1285 1286 
887 -18 1285 1287 
888 -18 1288 1289 
889 -18 1288 1290 
890 -18 1291 1293 
891 -18 1291 1292 
892 -18 1294 1295 
893 -18 1294 1296 
894 -18 1297 1299 
895 -18 1297 1298 
896 -18 1300 1302 
897 -18 1300 1301 
898 -18 1303 1304 
899 -18 1303 1305 
900 -18 1306 1308 
901 -18 1306 1307 
902 -18 1309 1311 
903 -18 1309 1310 
904 -18 1312 1314 
905 -18 1312 1313 
906 -18 1315 1317 
907 -18 1315 1316 
908 -18 1318 1320 
909 -18 1318 1319 
910 -18 1321 1323 
911 -18 1321 1322 
912 -18 1324 1325 
913 -18 1324 1326 
914 -18 1327 1329 
915 -18 1327 1328 
916 -18 1330 1332 
917 -18 1330 1331 
918 -18 1333 1334 
919 -18 1333 1335 
920 -18 1336 1337 
921 -18 1336 1338 
922 -18 1339 1340 
923 -18 1339 1341 
924 -18 1342 1344 
925 -18 1342 1343 
926 -18 1345 1347 
927 -18 1345 1346 
928 -18 1348 1350 
929 -18 1348 1349 
930 -18 1351 1352 
931 -18 1351 1353 
932 -18 1354 1355 
933 -18 1354 1356 
934 -18 1357 1358 
935 -18 1357 1359 
936 -18 1360 1362 
937 -18 1360 1361 
938 -18 1363 1365 
939 -18 1363 1364 
940 -18 1366 1368 
941 -18 1366 1367 
942 -18 1369 1370 
943 -18 1369 1371 
944 -18 1372 1373 
945 -18 1372 1374 
946 -18 1375 1377 
947 -18 1375 1376 
948 -18 1378 1379 
949 -18 1378 1380 
950 -18 1381 1382 
951 -18 1381 1383 
952 -18 1384 1385 
953 -18 1384 1386 
954 -18 1387 1388 
955 -18 1387 1389 
956 -18 1390 1392 
957 -18 1390 1391 
958 -18 1393 1395 
959 -18 1393 1394 
960 -18 1396 1397 
961 -18 1396 1398 
962 -18 1399 1401 
963 -18 1399 1400 
964 -18 1402 1403 
965 -18 1402 1404 
966 -18 1405 1406 
967 -18 1405 1407 
968 -18 1408 1409 
969 -18 1408 1410 
970 -18 1411 1412 
971 -18 1411 1413 
972 -18 1414 1416 
973 -18 1414 1415 
974 -18 1417 1419 
975 -18 1417 1418 
976 -18 1420 1422 
977 -18 1420 1421 
978 -18 1423 1425 
979 -18 1423 1424 
980 -18 1426 1428 
981 -18 1426 1427 
982 -18 1429 1430 
983 -18 1429 1431 
984 -18 1432 1434 
985 -18 1432 1433 
986 -18 1435 1436 
987 -18 1435 1437 
988 -18 1438 1439 
989 -18 1438 1440 
990 -18 1441 1442 
991 -18 1441 1443 
992 -18 1444 1445 
993 -18 1444 1446 
994 -18 1447 1448 
995 -18 1447 1449 
996 -18 1450 1451 
997 -18 1450 1452 
998 -18 1453 1455 
999 -18 1453 1454 
1000 -18 1456 1457 
1001 -18 1456 1458 
1002 -18 1459 1461 
1003 -18 1459 1460 
1004 -18 1462 1463 
1005 -18 1462 1464 
1006 -18 1465 1466 
1007 -18 1465 1467 
1008 -18 1468 1470 
1009 -18 1468 1469 
1010 -18 1471 1472 
1011 -18 1471 1473 
1012 -18 1474 1476 
1013 -18 1474 1475 
1014 -18 1477 1478 
1015 -18 1477 1479 
1016 -18 1480 1482 
1017 -18 1480 1481 
1018 -18 1483 1485 
1019 -18 1483 1484 
1020 -18 1486 1488 
1021 -18 1486 1487 
1022 -18 1489 1491 
1023 -18 1489 1490 
1024 -18 1492 1493 
1025 -18 1492 1494 
1026 -18 1495 1496 
1027 -18 1495 1497 
1028 -18 1498 1499 
1029 -18 1498 1500 
1030 -18 1501 1502 
1031 -18 1501 1503 
1032 -18 1504 1505 
1033 -18 1504 1506 
1034 -18 1507 1509 
1035 -18 1507 1508 
1036 -18 1510 1512 
1037 -18 1510 1511 
1038 -18 1513 1515 
1039 -18 1513 1514 
1040 -18 1516 1518 
1041 -18 1516 1517 
1042 -18 1519 1520 
1043 -18 1519 1521 
1044 -18 1522 1524 
1045 -18 1522 1523 
1046 -18 1525 1526 
1047 -18 1525 1527 
1048 -18 1528 1529 
1049 -18 1528 1530 
1050 -18 1531 1533 
1051 -18 1531 1532 
1052 -18 1534 1536 
1053 -18 1534 1535 
1054 -18 1537 1539 
1055 -18 1537 1538 
1056 -18 1540 1541 
1057 -18 1540 1542 
1058 -18 1543 1545 
1059 -18 1543 1544 
1060 -18 1546 1547 
1061 -18 1546 1548 
1062 -18 1549 1551 
1063 -18 1549 1550 
1064 -18 1552 1553 
1065 -18 1552 1554 
1066 -18 1555 1557 
1067 -18 1555 1556 
1068 -18 1558 1559 
1069 -18 1558 1560 
1070 -18 1561 1562 
1071 -18 1561 1563 
1072 -18 1564 1565 
1073 -18 1564 1566 
1074 -18 1567 1569 
1075 -18 1567 1568 
1076 -18 1570 1571 
1077 -18 1570 1572 
1078 -18 1573 1575 
1079 -18 1573 1574 
1080 -18 1576 1578 
1081 -18 1576 1577 
1082 -18 1579 1581 
1083 -18 1579 1580 
1084 -18 1582 1584 
1085 -18 1582 1583 
1086 -18 1585 1586 
1087 -18 1585 1587 
1088 -18 1588 1590 
1089 -18 1588 1589 
1090 -18 1591 1592 
1091 -18 1591 1593 
1092 -18 1594 1596 
1093 -18 1594 1595 
1094 -18 1597 1598 
1095 -18 1597 1599 
1096 -18 1600 1602 
1097 -18 1600 1601 
1098 -18 1603 1605 
1099 -18 1603 1604 
1100 -18 1606 1608 
1101 -18 1606 1607 
1102 -18 1609 1610 
1103 -18 1609 1611 
1104 -18 1612 1614 
1105 -18 1612 1613 
1106 -18 1615 1617 
1107 -18 1615 1616 
1108 -18 1618 1620 
1109 -18 1618 1619 
1110 -18 1621 1623 
1111 -18 1621 1622 
1112 -18 1624 1625 
1113 -18 1624 1626 
1114 -18 1627 1629 
1115 -18 1627 1628 
1116 -18 1630 1631 
1117 -18 1630 1632 
1118 -18 1633 1635 
1119 -18 1633 1634 
1120 -18 1636 1637 
1121 -18 1636 1638 
1122 -18 1639 1641 
1123 -18 1639 1640 
1124 -18 1642 1643 
1125 -18 1642 1644 
1126 -18 1645 1646 
1127 -18 1645 1647 
1128 -18 1648 1650 
1129 -18 1648 1649 
1130 -18 1651 1653 
1131 -18 1651 1652 
1132 -18 1654 1656 
1133 -18 1654 1655 
1134 -18 1657 1658 
1135 -18 1657 1659 
1136 -18 1660 1661 
1137 -18 1660 1662 
1138 -18 1663 1664 
1139 -18 1663 1665 
1140 -18 1666 1668 
1141 -18 1666 1667 
1142 -18 1669 1670 
1143 -18 1669 1671 
1144 -18 1672 1674 
1145 -18 1672 1673 
1146 -18 1675 1676 
1147 -18 1675 1677 
1148 -18 1678 1680 
1149 -18 1678 1679 
1150 -18 1681 1683 
1151 -18 1681 1682 
1152 -18 1684 1685 
1153 -18 1684 1686 
1154 -18 1687 1688 
1155 -18 1687 1689 
1156 -18 1690 1691 
1157 -18 1690 1692 
1158 -18 1693 1695 
1159 -18 1693 1694 
1160 -18 1696 1697 
1161 -18 1696 1698 
1162 -18 1699 1701 
1163 -18 1699 1700 
1164 -18 1702 1703 
1165 -18 1702 1704 
1166 -18 1705 1707 
1167 -18 1705 1706 
1168 -18 1708 1709 
1169 -18 1708 1710 
1170 -18 1711 1712 
1171 -18 1711 1713 
1172 -18 1714 1716 
1173 -18 1714 1715 
1174 -18 1717 1718 
1175 -18 1717 1719 
1176 -18 1720 1721 
1177 -18 1720 1722 
1178 -18 1723 1724 
1179 -18 1723 1725 
1180 -18 1726 1727 
1181 -18 1726 1728 
1182 -18 1729 1730 
1183 -18 1729 1731 
1184 -18 1732 1734 
1185 -18 1732 1733 
1186 -18 1735 1737 
1187 -18 1735 1736 
1188 -18 1738 1740 
1189 -18 1738 1739 
1190 -18 1741 1743 
1191 -18 1741 1742 
1192 -18 1744 1745 
1193 -18 1744 1746 
1194 -18 1747 1749 
1195 -18 1747 1748 
1196 -18 1750 1751 
1197 -18 1750 1752 
1198 -18 1753 1755 
1199 -18 1753 1754 
1200 -18 1756 1758 
1201 -18 1756 1757 
1202 -18 1759 1760 
1203 -18 1759 1761 
1204 -18 1762 1764 
1205 -18 1762 1763 
1206 -18 1765 1767 
1207 -18 1765 1766 
1208 -18 1768 1769 
1209 -18 1768 1770 
1210 -18 1771 1773 
1211 -18 1771 1772 
1212 -18 1774 1776 
1213 -18 1774 1775 
1214 -18 1777 1779 
1215 -18 1777 1778 
1216 -18 1780 1781 
1217 -18 1780 1782 
1218 -18 1783 1784 
1219 -18 1783 1785 
1220 -18 1786 1787 
1221 -18 1786 1788 
1222 -18 1789 1790 
1223 -18 1789 1791 
1224 -18 1792 1793 
1225 -18 1792 1794 
1226 -18 1795 1796 
1227 -18 1795 1797 
1228 -18 1798 1799 
1229 -18 1798 1800 
1230 -18 1801 1803 
1231 -18 1801 1802 
1232 -18 1804 1806 
1233 -18 1804 1805 
1234 -18 1807 1809 
1235 -18 1807 1808 
1236 -18 1810 1812 
1237 -18 1810 1811 
1238 -18 1813 1815 
1239 -18 1813 1814 
1240 -18 1816 1818 
1241 -18 1816 1817 
1242 -18 1819 1821 
1243 -18 1819 1820 
1244 -18 1822 1823 
1245 -18 1822 1824 
1246 -18 1825 1827 
1247 -18 1825 1826 
1248 -18 1828 1830 
1249 -18 1828 1829 
1250 -18 1831 1832 
1251 -18 1831 1833 
1252 -18 1834 1835 
1253 -18 1834 1836 
1254 -18 1837 1838 
1255 -18 1837 1839 
1256 -18 1840 1842 
1257 -18 1840 1841 
1258 -18 1843 1845 
1259 -18 1843 1844 
1260 -18 1846 1848 
1261 -18 1846 1847 
1262 -18 1849 1851 
1263 -18 1849 1850 
1264 -18 1852 1854 
1265 -18 1852 1853 
1266 -18 1855 1856 
1267 -18 1855 1857 
1268 -18 1858 1859 
1269 -18 1858 1860 
1270 -18 1861 1862 
1271 -18 1861 1863 
1272 -18 1864 1866 
1273 -18 1864 1865 
1274 -18 1867 1869 
1275 -18 1867 1868 
1276 -18 1870 1871 
1277 -18 1870 1872 
1278 -18 1873 1874 
1279 -18 1873 1875 
1280 -18 1876 1877 
1281 -18 1876 1878 
1282 -18 1879 1881 
1283 -18 1879 1880 
1284 -18 1882 1883 
1285 -18 1882 1884 
1286 -18 1885 1886 
1287 -18 1885 1887 
1288 -18 1888 1890 
1289 -18 1888 1889 
1290 -18 1891 1892 
1291 -18 1891 1893 
1292 -18 1894 1896 
1293 -18 1894 1895 
1294 -18 1897 1898 
1295 -18 1897 1899 
1296 -18 1900 1902 
1297 -18 1900 1901 
1298 -18 1903 1905 
1299 -18 1903 1904 
1300 -18 1906 1908 
1301 -18 1906 1907 
1302 -18 1909 1911 
1303 -18 1909 1910 
1304 -18 1912 1913 
1305 -18 1912 1914 
1306 -18 1915 1916 
1307 -18 1915 1917 
1308 -18 1918 1920 
1309 -18 1918 1919 
1310 -18 1921 1923 
1311 -18 1921 1922 
1312 -18 1924 1926 
1313 -18 1924 1925 
1314 -18 1927 1929 
1315 -18 1927 1928 
1316 -18 1930 1932 
1317 -18 1930 1931 
1318 -18 1933 1935 
1319 -18 1933 1934 
1320 -18 1936 1937 
1321 -18 1936 1938 
1322 -18 1939 1940 
1323 -18 1939 1941 
1324 -18 1942 1944 
1325 -18 1942 1943 
1326 -18 1945 1947 
1327 -18 1945 1946 
1328 -18 1948 1950 
1329 -18 1948 1949 
1330 -18 1951 1953 
1331 -18 1951 1952 
1332 -18 1954 1955 
1333 -18 1954 1956 
1334 -18 1957 1959 
1335 -18 1957 1958 
1336 -18 1960 1961 
1337 -18 1960 1962 
1338 -18 1963 1965 
1339 -18 1963 1964 
1340 -18 1966 1967 
1341 -18 1966 1968 
1342 -18 1969 1970 
1343 -18 1969 1971 
1344 -18 1972 1974 
1345 -18 1972 1973 
1346 -18 1975 1977 
1347 -18 1975 1976 
1348 -18 1978 1979 
1349 -18 1978 1980 
1350 -18 1981 1982 
1351 -18 1981 1983 
1352 -18 1984 1986 
1353 -18 1984 1985 
1354 -18 1987 1988 
1355 -18 1987 1989 
1356 -18 1990 1992 
1357 -18 1990 1991 
1358 -18 1993 1995 
1359 -18 1993 1994 
1360 -18 1996 1998 
1361 -18 1996 1997 
1362 -18 1999 2000 
1363 -18 1999 2001 
1364 -18 2002 2004 
1365 -18 2002 2003 
ITEM: TIMESTEP
300
ITEM: NUMBER OF ENTRIES
1365
ITEM: ENTRIES index c_bnd[1] c_bnd[2] c_bnd[3] 
1 3 1 7 
2 2 1 3 
3 1 1 2 
4 -4 2 5 
5 -4 2 6 
6 -4 2 4 
7 -6 7 19 
8 5 7 8 
9 1 8 9 
10 7 8 11 
11 -8 8 20 
12 3 9 28 
13 2 9 10 
14 -10 11 21 
15 9 11 12 
16 -10 11 22 
17 11 12 14 
18 11 12 13 
19 -12 13 23 
20 11 13 15 
21 -12 14 24 
22 11 14 16 
23 11 15 17 
24 -12 15 25 
25 11 16 17 
26 -12 16 26 
27 13 17 18 
28 -14 18 27 
29 5 28 29 
30 -6 28 32 
31 1 29 30 
32 -8 29 33 
33 -8 29 34 
34 3 30 35 
35 2 30 31 
36 5 35 36 
37 -6 35 39 
38 1 36 37 
39 -8 36 40 
40 -8 36 41 
41 2 37 38 
42 3 37 42 
43 -6 42 53 
44 5 42 43 
45 1 43 44 
46 7 43 46 
47 -8 43 54 
48 3 44 62 
49 2 44 45 
50 -10 46 56 
51 -10 46 55 
52 9 46 47 
53 11 47 48 
54 11 47 49 
55 11 48 50 
56 -12 48 57 
57 11 49 51 
58 -12 49 58 
59 11 50 52 
60 -12 50 59 
61 11 51 52 
62 -12 51 60 
63 -12 52 61 
64 -6 62 70 
65 5 62 63 
66 7 63 66 
67 1 63 64 
68 -8 63 71 
69 2 64 65 
70 3 64 79 
71 15 66 67 
72 -10 66 73 
73 -10 66 72 
74 -10 67 75 
75 -10 67 74 
76 16 67 68 
77 17 68 69 
78 -4 69 76 
79 -4 69 78 
80 -4 69 77 
81 5 79 80 
82 -6 79 81 
83 -4 80 84 
84 -4 80 83 
85 -4 80 82 
86 -18 85 86 
87 -18 85 87 
88 -18 88 90 
89 -18 88 89 
90 -18 91 93 
91 -18 91 92 
92 -18 94 96 
93 -18 94 95 
94 -18 97 98 
95 -18 97 99 
96 -18 100 101 
97 -18 100 102 
98 -18 103 104 
99 -18 103 105 
100 -18 106 107 
101 -18 106 108 
102 -18 109 111 
103 -18 109 110 
104 -18 112 114 
105 -18 112 113 
106 -18 115 116 
107 -18 115 117 
108 -18 118 120 
109 -18 118 119 
110 -18 121 123 
111 -18 121 122 
112 -18 124 126 
113 -18 124 125 
114 -18 127 128 
115 -18 127 129 
116 -18 130 132 
117 -18 130 131 
118 -18 133 134 
119 -18 133 135 
120 -18 136 137 
121 -18 136 138 
122 -18 139 140 
123 -18 139 141 
124 -18 142 144 
125 -18 142 143 
126 -18 145 147 
127 -18 145 146 
128 -18 148 150 
129 -18 148 149 
130 -18 151 152 
131 -18 151 153 
132 -18 154 156 
133 -18 154 155 
134 -18 157 159 
135 -18 157 158 
136 -18 160 162 
137 -18 160 161 
138 -18 163 164 
139 -18 163 165 
140 -18 166 168 
141 -18 166 167 
142 -18 169 171 
143 -18 169 170 
144 -18 172 174 
145 -18 172 173 
146 -18 175 177 
147 -18 175 176 
148 -18 178 180 
149 -18 178 179 
150 -18 181 182 
151 -18 181 183 
152 -18 184 186 
153 -18 184 185 
154 -18 187 188 
155 -18 187 189 
156 -18 190 191 
157 -18 190 192 
158 -18 193 194 
159 -18 193 195 
160 -18 196 197 
161 -18 196 198 
162 -18 199 201 
163 -18 199 200 
164 -18 202 204 
165 -18 202 203 
166 -18 205 206 
167 -18 205 207 
168 -18 208 210 
169 -18 208 209 
170 -18 211 212 
171 -18 211 213 
172 -18 214 215 
173 -18 214 216 
174 -18 217 219 
175 -18 217 218 
176 -18 220 222 
177 -18 220 221 
178 -18 223 224 
179 -18 223 225 
180 -18 226 228 
181 -18 226 227 
182 -18 229 231 
183 -18 229 230 
184 -18 232 233 
185 -18 232 234 
186 -18 235 236 
187 -18 235 237 
188 -18 238 240 
189 -18 238 239 
190 -18 241 242 
191 -18 241 243 
192 -18 244 246 
193 -18 244 245 
194 -18 247 248 
195 -18 247 249 
196 -18 250 251 
197 -18 250 252 
198 -18 253 254 
199 -18 253 255 
200 -18 256 257 
201 -18 256 258 
202 -18 259 261 
203 -18 259 260 
204 -18 262 264 
205 -18 262 263 
206 -18 265 266 
207 -18 265 267 
208 -18 268 269 
209 -18 268 270 
210 -18 271 272 
211 -18 271 273 
212 -18 274 275 
213 -18 274 276 
214 -18 277 279 
215 -18 277 278 
216 -18 280 282 
217 -18 280 281 
218 -18 283 284 
219 -18 283 285 
220 -18 286 287 
221 -18 286 288 
222 -18 289 290 
223 -18 289 291 
224 -18 292 294 
225 -18 292 293 
226 -18 295 296 
227 -18 295 297 
228 -18 298 299 
229 -18 298 300 
230 -18 301 303 
231 -18 301 302 
232 -18 304 305 
233 -18 304 306 
234 -18 307 309 
235 -18 307 308 
236 -18 310 311 
237 -18 310 312 
238 -18 313 314 
239 -18 313 315 
240 -18 316 317 
241 -18 316 318 
242 -18 319 321 
243 -18 319 320 
244 -18 322 323 
245 -18 322 324 
246 -18 325 327 
247 -18 325 326 
248 -18 328 329 
249 -18 328 330 
250 -18 331 332 
251 -18 331 333 
252 -18 334 335 
253 -18 334 336 
254 -18 337 339 
255 -18 337 338 
256 -18 340 341 
257 -18 340 342 
258 -18 343 344 
259 -18 343 345 
260 -18 346 347 
261 -18 346 348 
262 -18 349 350 
263 -18 349 351 
264 -18 352 353 
265 -18 352 354 
266 -18 355 356 
267 -18 355 357 
268 -18 358 359 
269 -18 358 360 
270 -18 361 362 
271 -18 361 363 
272 -18 364 365 
273 -18 364 366 
274 -18 367 369 
275 -18 367 368 
276 -18 370 372 
277 -18 370 371 
278 -18 373 374 
279 -18 373 375 
280 -18 376 378 
281 -18 376 377 
282 -18 379 381 
283 -18 379 380 
284 -18 382 383 
285 -18 382 384 
286 -18 385 386 
287 -18 385 387 
288 -18 388 390 
289 -18 388 389 
290 -18 391 393 
291 -18 391 392 
292 -18 394 395 
293 -18 394 396 
294 -18 397 399 
295 -18 397 398 
296 -18 400 402 
297 -18 400 401 
298 -18 403 405 
299 -18 403 404 
300 -18 406 407 
301 -18 406 408 
302 -18 409 411 
303 -18 409 410 
304 -18 412 413 
305 -18 412 414 
306 -18 415 417 
307 -18 415 416 
308 -18 418 420 
309 -18 418 419 
310 -18 421 422 
311 -18 421 423 
312 -18 424 425 
313 -18 424 426 
314 -18 427 428 
315 -18 427 429 
316 -18 430 432 
317 -18 430 431 
318 -18 433 435 
319 -18 433 434 
320 -18 436 437 
321 -18 436 438 
322 -18 439 440 
323 -18 439 441 
324 -18 442 443 
325 -18 442 444 
326 -18 445 447 
327 -18 445 446 
328 -18 448 449 
329 -18 448 450 
330 -18 451 453 
331 -18 451 452 
332 -18 454 456 
333 -18 454 455 
334 -18 457 458 
335 -18 457 459 
336 -18 460 462 
337 -18 460 461 